<?xml version="1.0"?>
<VTKFile type="UnstructuredGrid"  version="0.1"  >
<UnstructuredGrid>
<Piece  NumberOfPoints="341" NumberOfCells="940">
<Points>
<DataArray  type="Float64"  NumberOfComponents="3"  format="ascii">0 0 0  0.1 0 0  0.2 0 0  0.3 0 0  0.4 0 0  0.5 0 0  0.6 0 0  0.7 0 0  0.8 0 0  0.9 0 0  1 0 0  0 0.1 0  0.1 0.1 0  0.2 0.1 0  0.3 0.1 0  0.4 0.1 0  0.5 0.1 0  0.6 0.1 0  0.7 0.1 0  0.8 0.1 0  0.9 0.1 0  1 0.1 0  0 0.2 0  0.1 0.2 0  0.2 0.2 0  0.3 0.2 0  0.4 0.2 0  0.5 0.2 0  0.6 0.2 0  0.7 0.2 0  0.8 0.2 0  0.9 0.2 0  1 0.2 0  0 0.3 0  0.1 0.3 0  0.2 0.3 0  0.3 0.3 0  0.4 0.3 0  0.5 0.3 0  0.6 0.3 0  0.7 0.3 0  0.8 0.3 0  0.9 0.3 0  1 0.3 0  0 0.4 0  0.1 0.4 0  0.2 0.4 0  0.3 0.4 0  0.4 0.4 0  0.5 0.4 0  0.6 0.4 0  0.7 0.4 0  0.8 0.4 0  0.9 0.4 0  1 0.4 0  0 0.5 0  0.1 0.5 0  0.2 0.5 0  0.3 0.5 0  0.4 0.5 0  0.5 0.5 0  0.6 0.5 0  0.7 0.5 0  0.8 0.5 0  0.9 0.5 0  1 0.5 0  0 0.6 0  0.1 0.6 0  0.2 0.6 0  0.3 0.6 0  0.4 0.6 0  0.5 0.6 0  0.6 0.6 0  0.7 0.6 0  0.8 0.6 0  0.9 0.6 0  1 0.6 0  0 0.7 0  0.1 0.7 0  0.2 0.7 0  0.3 0.7 0  0.4 0.7 0  0.5 0.7 0  0.6 0.7 0  0.7 0.7 0  0.8 0.7 0  0.9 0.7 0  1 0.7 0  0 0.8 0  0.1 0.8 0  0.2 0.8 0  0.3 0.8 0  0.4 0.8 0  0.5 0.8 0  0.6 0.8 0  0.7 0.8 0  0.8 0.8 0  0.9 0.8 0  1 0.8 0  0 0.9 0  0.1 0.9 0  0.2 0.9 0  0.3 0.9 0  0.4 0.9 0  0.5 0.9 0  0.6 0.9 0  0.7 0.9 0  0.8 0.9 0  0.9 0.9 0  1 0.9 0  0 1 0  0.1 1 0  0.2 1 0  0.3 1 0  0.4 1 0  0.5 1 0  0.6 1 0  0.7 1 0  0.8 1 0  0.9 1 0  1 1 0  0 1.1 0  0.1 1.1 0  0.2 1.1 0  0.3 1.1 0  0.4 1.1 0  0.5 1.1 0  0.6 1.1 0  0.7 1.1 0  0.8 1.1 0  0.9 1.1 0  1 1.1 0  0 1.2 0  0.1 1.2 0  0.2 1.2 0  0.3 1.2 0  0.4 1.2 0  0.5 1.2 0  0.6 1.2 0  0.7 1.2 0  0.8 1.2 0  0.9 1.2 0  1 1.2 0  0 1.3 0  0.1 1.3 0  0.2 1.3 0  0.3 1.3 0  0.4 1.3 0  0.5 1.3 0  0.6 1.3 0  0.7 1.3 0  0.8 1.3 0  0.9 1.3 0  1 1.3 0  0 1.4 0  0.1 1.4 0  0.2 1.4 0  0.3 1.4 0  0.4 1.4 0  0.5 1.4 0  0.6 1.4 0  0.7 1.4 0  0.8 1.4 0  0.9 1.4 0  1 1.4 0  0 1.5 0  0.1 1.5 0  0.2 1.5 0  0.3 1.5 0  0.4 1.5 0  0.5 1.5 0  0.6 1.5 0  0.7 1.5 0  0.8 1.5 0  0.9 1.5 0  1 1.5 0  0 1.6 0  0.1 1.6 0  0.2 1.6 0  0.3 1.6 0  0.4 1.6 0  0.5 1.6 0  0.6 1.6 0  0.7 1.6 0  0.8 1.6 0  0.9 1.6 0  1 1.6 0  0 1.7 0  0.1 1.7 0  0.2 1.7 0  0.3 1.7 0  0.4 1.7 0  0.5 1.7 0  0.6 1.7 0  0.7 1.7 0  0.8 1.7 0  0.9 1.7 0  1 1.7 0  0 1.8 0  0.1 1.8 0  0.2 1.8 0  0.3 1.8 0  0.4 1.8 0  0.5 1.8 0  0.6 1.8 0  0.7 1.8 0  0.8 1.8 0  0.9 1.8 0  1 1.8 0  0 1.9 0  0.1 1.9 0  0.2 1.9 0  0.3 1.9 0  0.4 1.9 0  0.5 1.9 0  0.6 1.9 0  0.7 1.9 0  0.8 1.9 0  0.9 1.9 0  1 1.9 0  0 2 0  0.1 2 0  0.2 2 0  0.3 2 0  0.4 2 0  0.5 2 0  0.6 2 0  0.7 2 0  0.8 2 0  0.9 2 0  1 2 0  0 2.1 0  0.1 2.1 0  0.2 2.1 0  0.3 2.1 0  0.4 2.1 0  0.5 2.1 0  0.6 2.1 0  0.7 2.1 0  0.8 2.1 0  0.9 2.1 0  1 2.1 0  0 2.2 0  0.1 2.2 0  0.2 2.2 0  0.3 2.2 0  0.4 2.2 0  0.5 2.2 0  0.6 2.2 0  0.7 2.2 0  0.8 2.2 0  0.9 2.2 0  1 2.2 0  0 2.3 0  0.1 2.3 0  0.2 2.3 0  0.3 2.3 0  0.4 2.3 0  0.5 2.3 0  0.6 2.3 0  0.7 2.3 0  0.8 2.3 0  0.9 2.3 0  1 2.3 0  0 2.4 0  0.1 2.4 0  0.2 2.4 0  0.3 2.4 0  0.4 2.4 0  0.5 2.4 0  0.6 2.4 0  0.7 2.4 0  0.8 2.4 0  0.9 2.4 0  1 2.4 0  0 2.5 0  0.1 2.5 0  0.2 2.5 0  0.3 2.5 0  0.4 2.5 0  0.5 2.5 0  0.6 2.5 0  0.7 2.5 0  0.8 2.5 0  0.9 2.5 0  1 2.5 0  0 2.6 0  0.1 2.6 0  0.2 2.6 0  0.3 2.6 0  0.4 2.6 0  0.5 2.6 0  0.6 2.6 0  0.7 2.6 0  0.8 2.6 0  0.9 2.6 0  1 2.6 0  0 2.7 0  0.1 2.7 0  0.2 2.7 0  0.3 2.7 0  0.4 2.7 0  0.5 2.7 0  0.6 2.7 0  0.7 2.7 0  0.8 2.7 0  0.9 2.7 0  1 2.7 0  0 2.8 0  0.1 2.8 0  0.2 2.8 0  0.3 2.8 0  0.4 2.8 0  0.5 2.8 0  0.6 2.8 0  0.7 2.8 0  0.8 2.8 0  0.9 2.8 0  1 2.8 0  0 2.9 0  0.1 2.9 0  0.2 2.9 0  0.3 2.9 0  0.4 2.9 0  0.5 2.9 0  0.6 2.9 0  0.7 2.9 0  0.8 2.9 0  0.9 2.9 0  1 2.9 0  0 3 0  0.1 3 0  0.2 3 0  0.3 3 0  0.4 3 0  0.5 3 0  0.6 3 0  0.7 3 0  0.8 3 0  0.9 3 0  1 3 0  </DataArray>
</Points>
<Cells>
<DataArray  type="UInt32"  Name="connectivity"  format="ascii">0 1  0 11  0 12  1 2  1 12  1 13  2 3  2 13  2 14  3 4  3 14  3 15  4 5  4 15  4 16  5 6  5 16  5 17  6 7  6 17  6 18  7 8  7 18  7 19  8 9  8 19  8 20  9 10  9 20  9 21  10 21  11 12  11 22  11 23  12 13  12 23  12 24  13 14  13 24  13 25  14 15  14 25  14 26  15 16  15 26  15 27  16 17  16 27  16 28  17 18  17 28  17 29  18 19  18 29  18 30  19 20  19 30  19 31  20 21  20 31  20 32  21 32  22 23  22 33  22 34  23 24  23 34  23 35  24 25  24 35  24 36  25 26  25 36  25 37  26 27  26 37  26 38  27 28  27 38  27 39  28 29  28 39  28 40  29 30  29 40  29 41  30 31  30 41  30 42  31 32  31 42  31 43  32 43  33 34  33 44  33 45  34 35  34 45  34 46  35 36  35 46  35 47  36 37  36 47  36 48  37 38  37 48  37 49  38 39  38 49  38 50  39 40  39 50  39 51  40 41  40 51  40 52  41 42  41 52  41 53  42 43  42 53  42 54  43 54  44 45  44 55  44 56  45 46  45 56  45 57  46 47  46 57  46 58  47 48  47 58  47 59  48 49  48 59  48 60  49 50  49 60  49 61  50 51  50 61  50 62  51 52  51 62  51 63  52 53  52 63  52 64  53 54  53 64  53 65  54 65  55 56  55 66  55 67  56 57  56 67  56 68  57 58  57 68  57 69  58 59  58 69  58 70  59 60  59 70  59 71  60 61  60 71  60 72  61 62  61 72  61 73  62 63  62 73  62 74  63 64  63 74  63 75  64 65  64 75  64 76  65 76  66 67  66 77  66 78  67 68  67 78  67 79  68 69  68 79  68 80  69 70  69 80  69 81  70 71  70 81  70 82  71 72  71 82  71 83  72 73  72 83  72 84  73 74  73 84  73 85  74 75  74 85  74 86  75 76  75 86  75 87  76 87  77 78  77 88  77 89  78 79  78 89  78 90  79 80  79 90  79 91  80 81  80 91  80 92  81 82  81 92  81 93  82 83  82 93  82 94  83 84  83 94  83 95  84 85  84 95  84 96  85 86  85 96  85 97  86 87  86 97  86 98  87 98  88 89  88 99  88 100  89 90  89 100  89 101  90 91  90 101  90 102  91 92  91 102  91 103  92 93  92 103  92 104  93 94  93 104  93 105  94 95  94 105  94 106  95 96  95 106  95 107  96 97  96 107  96 108  97 98  97 108  97 109  98 109  99 100  99 110  99 111  100 101  100 111  100 112  101 102  101 112  101 113  102 103  102 113  102 114  103 104  103 114  103 115  104 105  104 115  104 116  105 106  105 116  105 117  106 107  106 117  106 118  107 108  107 118  107 119  108 109  108 119  108 120  109 120  110 111  110 121  110 122  111 112  111 122  111 123  112 113  112 123  112 124  113 114  113 124  113 125  114 115  114 125  114 126  115 116  115 126  115 127  116 117  116 127  116 128  117 118  117 128  117 129  118 119  118 129  118 130  119 120  119 130  119 131  120 131  121 122  121 132  121 133  122 123  122 133  122 134  123 124  123 134  123 135  124 125  124 135  124 136  125 126  125 136  125 137  126 127  126 137  126 138  127 128  127 138  127 139  128 129  128 139  128 140  129 130  129 140  129 141  130 131  130 141  130 142  131 142  132 133  132 143  132 144  133 134  133 144  133 145  134 135  134 145  134 146  135 136  135 146  135 147  136 137  136 147  136 148  137 138  137 148  137 149  138 139  138 149  138 150  139 140  139 150  139 151  140 141  140 151  140 152  141 142  141 152  141 153  142 153  143 144  143 154  143 155  144 145  144 155  144 156  145 146  145 156  145 157  146 147  146 157  146 158  147 148  147 158  147 159  148 149  148 159  148 160  149 150  149 160  149 161  150 151  150 161  150 162  151 152  151 162  151 163  152 153  152 163  152 164  153 164  154 155  154 165  154 166  155 156  155 166  155 167  156 157  156 167  156 168  157 158  157 168  157 169  158 159  158 169  158 170  159 160  159 170  159 171  160 161  160 171  160 172  161 162  161 172  161 173  162 163  162 173  162 174  163 164  163 174  163 175  164 175  165 166  165 176  165 177  166 167  166 177  166 178  167 168  167 178  167 179  168 169  168 179  168 180  169 170  169 180  169 181  170 171  170 181  170 182  171 172  171 182  171 183  172 173  172 183  172 184  173 174  173 184  173 185  174 175  174 185  174 186  175 186  176 177  176 187  176 188  177 178  177 188  177 189  178 179  178 189  178 190  179 180  179 190  179 191  180 181  180 191  180 192  181 182  181 192  181 193  182 183  182 193  182 194  183 184  183 194  183 195  184 185  184 195  184 196  185 186  185 196  185 197  186 197  187 188  187 198  187 199  188 189  188 199  188 200  189 190  189 200  189 201  190 191  190 201  190 202  191 192  191 202  191 203  192 193  192 203  192 204  193 194  193 204  193 205  194 195  194 205  194 206  195 196  195 206  195 207  196 197  196 207  196 208  197 208  198 199  198 209  198 210  199 200  199 210  199 211  200 201  200 211  200 212  201 202  201 212  201 213  202 203  202 213  202 214  203 204  203 214  203 215  204 205  204 215  204 216  205 206  205 216  205 217  206 207  206 217  206 218  207 208  207 218  207 219  208 219  209 210  209 220  209 221  210 211  210 221  210 222  211 212  211 222  211 223  212 213  212 223  212 224  213 214  213 224  213 225  214 215  214 225  214 226  215 216  215 226  215 227  216 217  216 227  216 228  217 218  217 228  217 229  218 219  218 229  218 230  219 230  220 221  220 231  220 232  221 222  221 232  221 233  222 223  222 233  222 234  223 224  223 234  223 235  224 225  224 235  224 236  225 226  225 236  225 237  226 227  226 237  226 238  227 228  227 238  227 239  228 229  228 239  228 240  229 230  229 240  229 241  230 241  231 232  231 242  231 243  232 233  232 243  232 244  233 234  233 244  233 245  234 235  234 245  234 246  235 236  235 246  235 247  236 237  236 247  236 248  237 238  237 248  237 249  238 239  238 249  238 250  239 240  239 250  239 251  240 241  240 251  240 252  241 252  242 243  242 253  242 254  243 244  243 254  243 255  244 245  244 255  244 256  245 246  245 256  245 257  246 247  246 257  246 258  247 248  247 258  247 259  248 249  248 259  248 260  249 250  249 260  249 261  250 251  250 261  250 262  251 252  251 262  251 263  252 263  253 254  253 264  253 265  254 255  254 265  254 266  255 256  255 266  255 267  256 257  256 267  256 268  257 258  257 268  257 269  258 259  258 269  258 270  259 260  259 270  259 271  260 261  260 271  260 272  261 262  261 272  261 273  262 263  262 273  262 274  263 274  264 265  264 275  264 276  265 266  265 276  265 277  266 267  266 277  266 278  267 268  267 278  267 279  268 269  268 279  268 280  269 270  269 280  269 281  270 271  270 281  270 282  271 272  271 282  271 283  272 273  272 283  272 284  273 274  273 284  273 285  274 285  275 276  275 286  275 287  276 277  276 287  276 288  277 278  277 288  277 289  278 279  278 289  278 290  279 280  279 290  279 291  280 281  280 291  280 292  281 282  281 292  281 293  282 283  282 293  282 294  283 284  283 294  283 295  284 285  284 295  284 296  285 296  286 287  286 297  286 298  287 288  287 298  287 299  288 289  288 299  288 300  289 290  289 300  289 301  290 291  290 301  290 302  291 292  291 302  291 303  292 293  292 303  292 304  293 294  293 304  293 305  294 295  294 305  294 306  295 296  295 306  295 307  296 307  297 298  297 308  297 309  298 299  298 309  298 310  299 300  299 310  299 311  300 301  300 311  300 312  301 302  301 312  301 313  302 303  302 313  302 314  303 304  303 314  303 315  304 305  304 315  304 316  305 306  305 316  305 317  306 307  306 317  306 318  307 318  308 309  308 319  308 320  309 310  309 320  309 321  310 311  310 321  310 322  311 312  311 322  311 323  312 313  312 323  312 324  313 314  313 324  313 325  314 315  314 325  314 326  315 316  315 326  315 327  316 317  316 327  316 328  317 318  317 328  317 329  318 329  319 320  319 330  319 331  320 321  320 331  320 332  321 322  321 332  321 333  322 323  322 333  322 334  323 324  323 334  323 335  324 325  324 335  324 336  325 326  325 336  325 337  326 327  326 337  326 338  327 328  327 338  327 339  328 329  328 339  328 340  329 340  330 331  331 332  332 333  333 334  334 335  335 336  336 337  337 338  338 339  339 340  </DataArray>
<DataArray  type="UInt32"  Name="offsets"  format="ascii">2 4 6 8 10 12 14 16 18 20 22 24 26 28 30 32 34 36 38 40 42 44 46 48 50 52 54 56 58 60 62 64 66 68 70 72 74 76 78 80 82 84 86 88 90 92 94 96 98 100 102 104 106 108 110 112 114 116 118 120 122 124 126 128 130 132 134 136 138 140 142 144 146 148 150 152 154 156 158 160 162 164 166 168 170 172 174 176 178 180 182 184 186 188 190 192 194 196 198 200 202 204 206 208 210 212 214 216 218 220 222 224 226 228 230 232 234 236 238 240 242 244 246 248 250 252 254 256 258 260 262 264 266 268 270 272 274 276 278 280 282 284 286 288 290 292 294 296 298 300 302 304 306 308 310 312 314 316 318 320 322 324 326 328 330 332 334 336 338 340 342 344 346 348 350 352 354 356 358 360 362 364 366 368 370 372 374 376 378 380 382 384 386 388 390 392 394 396 398 400 402 404 406 408 410 412 414 416 418 420 422 424 426 428 430 432 434 436 438 440 442 444 446 448 450 452 454 456 458 460 462 464 466 468 470 472 474 476 478 480 482 484 486 488 490 492 494 496 498 500 502 504 506 508 510 512 514 516 518 520 522 524 526 528 530 532 534 536 538 540 542 544 546 548 550 552 554 556 558 560 562 564 566 568 570 572 574 576 578 580 582 584 586 588 590 592 594 596 598 600 602 604 606 608 610 612 614 616 618 620 622 624 626 628 630 632 634 636 638 640 642 644 646 648 650 652 654 656 658 660 662 664 666 668 670 672 674 676 678 680 682 684 686 688 690 692 694 696 698 700 702 704 706 708 710 712 714 716 718 720 722 724 726 728 730 732 734 736 738 740 742 744 746 748 750 752 754 756 758 760 762 764 766 768 770 772 774 776 778 780 782 784 786 788 790 792 794 796 798 800 802 804 806 808 810 812 814 816 818 820 822 824 826 828 830 832 834 836 838 840 842 844 846 848 850 852 854 856 858 860 862 864 866 868 870 872 874 876 878 880 882 884 886 888 890 892 894 896 898 900 902 904 906 908 910 912 914 916 918 920 922 924 926 928 930 932 934 936 938 940 942 944 946 948 950 952 954 956 958 960 962 964 966 968 970 972 974 976 978 980 982 984 986 988 990 992 994 996 998 1000 1002 1004 1006 1008 1010 1012 1014 1016 1018 1020 1022 1024 1026 1028 1030 1032 1034 1036 1038 1040 1042 1044 1046 1048 1050 1052 1054 1056 1058 1060 1062 1064 1066 1068 1070 1072 1074 1076 1078 1080 1082 1084 1086 1088 1090 1092 1094 1096 1098 1100 1102 1104 1106 1108 1110 1112 1114 1116 1118 1120 1122 1124 1126 1128 1130 1132 1134 1136 1138 1140 1142 1144 1146 1148 1150 1152 1154 1156 1158 1160 1162 1164 1166 1168 1170 1172 1174 1176 1178 1180 1182 1184 1186 1188 1190 1192 1194 1196 1198 1200 1202 1204 1206 1208 1210 1212 1214 1216 1218 1220 1222 1224 1226 1228 1230 1232 1234 1236 1238 1240 1242 1244 1246 1248 1250 1252 1254 1256 1258 1260 1262 1264 1266 1268 1270 1272 1274 1276 1278 1280 1282 1284 1286 1288 1290 1292 1294 1296 1298 1300 1302 1304 1306 1308 1310 1312 1314 1316 1318 1320 1322 1324 1326 1328 1330 1332 1334 1336 1338 1340 1342 1344 1346 1348 1350 1352 1354 1356 1358 1360 1362 1364 1366 1368 1370 1372 1374 1376 1378 1380 1382 1384 1386 1388 1390 1392 1394 1396 1398 1400 1402 1404 1406 1408 1410 1412 1414 1416 1418 1420 1422 1424 1426 1428 1430 1432 1434 1436 1438 1440 1442 1444 1446 1448 1450 1452 1454 1456 1458 1460 1462 1464 1466 1468 1470 1472 1474 1476 1478 1480 1482 1484 1486 1488 1490 1492 1494 1496 1498 1500 1502 1504 1506 1508 1510 1512 1514 1516 1518 1520 1522 1524 1526 1528 1530 1532 1534 1536 1538 1540 1542 1544 1546 1548 1550 1552 1554 1556 1558 1560 1562 1564 1566 1568 1570 1572 1574 1576 1578 1580 1582 1584 1586 1588 1590 1592 1594 1596 1598 1600 1602 1604 1606 1608 1610 1612 1614 1616 1618 1620 1622 1624 1626 1628 1630 1632 1634 1636 1638 1640 1642 1644 1646 1648 1650 1652 1654 1656 1658 1660 1662 1664 1666 1668 1670 1672 1674 1676 1678 1680 1682 1684 1686 1688 1690 1692 1694 1696 1698 1700 1702 1704 1706 1708 1710 1712 1714 1716 1718 1720 1722 1724 1726 1728 1730 1732 1734 1736 1738 1740 1742 1744 1746 1748 1750 1752 1754 1756 1758 1760 1762 1764 1766 1768 1770 1772 1774 1776 1778 1780 1782 1784 1786 1788 1790 1792 1794 1796 1798 1800 1802 1804 1806 1808 1810 1812 1814 1816 1818 1820 1822 1824 1826 1828 1830 1832 1834 1836 1838 1840 1842 1844 1846 1848 1850 1852 1854 1856 1858 1860 1862 1864 1866 1868 1870 1872 1874 1876 1878 1880 </DataArray>
<DataArray  type="UInt8"  Name="types"  format="ascii">3 3 3 3 3 3 3 3 3 3 3 3 3 3 3 3 3 3 3 3 3 3 3 3 3 3 3 3 3 3 3 3 3 3 3 3 3 3 3 3 3 3 3 3 3 3 3 3 3 3 3 3 3 3 3 3 3 3 3 3 3 3 3 3 3 3 3 3 3 3 3 3 3 3 3 3 3 3 3 3 3 3 3 3 3 3 3 3 3 3 3 3 3 3 3 3 3 3 3 3 3 3 3 3 3 3 3 3 3 3 3 3 3 3 3 3 3 3 3 3 3 3 3 3 3 3 3 3 3 3 3 3 3 3 3 3 3 3 3 3 3 3 3 3 3 3 3 3 3 3 3 3 3 3 3 3 3 3 3 3 3 3 3 3 3 3 3 3 3 3 3 3 3 3 3 3 3 3 3 3 3 3 3 3 3 3 3 3 3 3 3 3 3 3 3 3 3 3 3 3 3 3 3 3 3 3 3 3 3 3 3 3 3 3 3 3 3 3 3 3 3 3 3 3 3 3 3 3 3 3 3 3 3 3 3 3 3 3 3 3 3 3 3 3 3 3 3 3 3 3 3 3 3 3 3 3 3 3 3 3 3 3 3 3 3 3 3 3 3 3 3 3 3 3 3 3 3 3 3 3 3 3 3 3 3 3 3 3 3 3 3 3 3 3 3 3 3 3 3 3 3 3 3 3 3 3 3 3 3 3 3 3 3 3 3 3 3 3 3 3 3 3 3 3 3 3 3 3 3 3 3 3 3 3 3 3 3 3 3 3 3 3 3 3 3 3 3 3 3 3 3 3 3 3 3 3 3 3 3 3 3 3 3 3 3 3 3 3 3 3 3 3 3 3 3 3 3 3 3 3 3 3 3 3 3 3 3 3 3 3 3 3 3 3 3 3 3 3 3 3 3 3 3 3 3 3 3 3 3 3 3 3 3 3 3 3 3 3 3 3 3 3 3 3 3 3 3 3 3 3 3 3 3 3 3 3 3 3 3 3 3 3 3 3 3 3 3 3 3 3 3 3 3 3 3 3 3 3 3 3 3 3 3 3 3 3 3 3 3 3 3 3 3 3 3 3 3 3 3 3 3 3 3 3 3 3 3 3 3 3 3 3 3 3 3 3 3 3 3 3 3 3 3 3 3 3 3 3 3 3 3 3 3 3 3 3 3 3 3 3 3 3 3 3 3 3 3 3 3 3 3 3 3 3 3 3 3 3 3 3 3 3 3 3 3 3 3 3 3 3 3 3 3 3 3 3 3 3 3 3 3 3 3 3 3 3 3 3 3 3 3 3 3 3 3 3 3 3 3 3 3 3 3 3 3 3 3 3 3 3 3 3 3 3 3 3 3 3 3 3 3 3 3 3 3 3 3 3 3 3 3 3 3 3 3 3 3 3 3 3 3 3 3 3 3 3 3 3 3 3 3 3 3 3 3 3 3 3 3 3 3 3 3 3 3 3 3 3 3 3 3 3 3 3 3 3 3 3 3 3 3 3 3 3 3 3 3 3 3 3 3 3 3 3 3 3 3 3 3 3 3 3 3 3 3 3 3 3 3 3 3 3 3 3 3 3 3 3 3 3 3 3 3 3 3 3 3 3 3 3 3 3 3 3 3 3 3 3 3 3 3 3 3 3 3 3 3 3 3 3 3 3 3 3 3 3 3 3 3 3 3 3 3 3 3 3 3 3 3 3 3 3 3 3 3 3 3 3 3 3 3 3 3 3 3 3 3 3 3 3 3 3 3 3 3 3 3 3 3 3 3 3 3 3 3 3 3 3 3 3 3 3 3 3 3 3 3 3 3 3 3 3 3 3 3 3 3 3 3 3 3 3 3 3 3 3 3 3 3 3 3 3 3 3 3 3 3 3 3 3 3 3 3 3 3 3 3 3 3 3 3 3 3 3 3 3 3 3 3 3 3 3 3 3 3 3 3 3 3 3 3 3 3 3 3 3 3 3 3 3 3 3 3 3 3 3 3 3 3 3 3 3 3 3 3 3 3 3 3 3 3 3 3 3 3 3 3 3 3 3 3 3 3 3 3 3 3 3 3 3 3 3 3 3 3 3 3 3 3 3 3 3 3 3 3 3 3 3 3 3 3 3 3 3 3 3 3 3 3 3 </DataArray>
</Cells>
<CellData  Scalars="f">
<DataArray  type="Float64"  Name="f"  format="ascii">2 3 0 2 0 0 2 0 0 2 0 0 2 0 0 2 0 0 2 0 0 2 0 0 2 0 0 2 0 0 4 0 3 0 0 0 0 0 0 0 0 0 0 0 0 0 0 0 0 0 0 0 0 0 0 0 0 0 0 0 0 4 0 3 0 0 0 0 0 0 0 0 0 0 0 0 0 0 0 0 0 0 0 0 0 0 0 0 0 0 0 0 4 0 3 0 0 0 0 0 0 0 0 0 0 0 0 0 0 0 0 0 0 0 0 0 0 0 0 0 0 0 0 4 0 3 0 0 0 0 0 0 0 0 0 0 0 0 0 0 0 0 0 0 0 0 0 0 0 0 0 0 0 0 4 0 3 0 0 0 0 0 0 0 0 0 0 0 0 0 0 0 0 0 0 0 0 0 0 0 0 0 0 0 0 4 0 3 0 0 0 0 0 0 0 0 0 0 0 0 0 0 0 0 0 0 0 0 0 0 0 0 0 0 0 0 4 0 3 0 0 0 0 0 0 0 0 0 0 0 0 0 0 0 0 0 0 0 0 0 0 0 0 0 0 0 0 4 0 3 0 0 0 0 0 0 0 0 0 0 0 0 0 0 0 0 0 0 0 0 0 0 0 0 0 0 0 0 4 0 3 0 0 0 0 0 0 0 0 0 0 0 0 0 0 0 0 0 0 0 0 0 0 0 0 0 0 0 0 4 0 3 0 0 0 0 0 0 0 0 0 0 0 0 0 0 0 0 0 0 0 0 0 0 0 0 0 0 0 0 4 0 3 0 0 0 0 0 0 0 0 0 0 0 0 0 0 0 0 0 0 0 0 0 0 0 0 0 0 0 0 4 0 3 0 0 0 0 0 0 0 0 0 0 0 0 0 0 0 0 0 0 0 0 0 0 0 0 0 0 0 0 4 0 3 0 0 0 0 0 0 0 0 0 0 0 0 0 0 0 0 0 0 0 0 0 0 0 0 0 0 0 0 4 0 3 0 0 0 0 0 0 0 0 0 0 0 0 0 0 0 0 0 0 0 0 0 0 0 0 0 0 0 0 4 0 3 0 0 0 0 0 0 0 0 0 0 0 0 0 0 0 0 0 0 0 0 0 0 0 0 0 0 0 0 4 0 3 0 0 0 0 0 0 0 0 0 0 0 0 0 0 0 0 0 0 0 0 0 0 0 0 0 0 0 0 4 0 3 0 0 0 0 0 0 0 0 0 0 0 0 0 0 0 0 0 0 0 0 0 0 0 0 0 0 0 0 4 0 3 0 0 0 0 0 0 0 0 0 0 0 0 0 0 0 0 0 0 0 0 0 0 0 0 0 0 0 0 4 0 3 0 0 0 0 0 0 0 0 0 0 0 0 0 0 0 0 0 0 0 0 0 0 0 0 0 0 0 0 4 0 3 0 0 0 0 0 0 0 0 0 0 0 0 0 0 0 0 0 0 0 0 0 0 0 0 0 0 0 0 4 0 3 0 0 0 0 0 0 0 0 0 0 0 0 0 0 0 0 0 0 0 0 0 0 0 0 0 0 0 0 4 0 3 0 0 0 0 0 0 0 0 0 0 0 0 0 0 0 0 0 0 0 0 0 0 0 0 0 0 0 0 4 0 3 0 0 0 0 0 0 0 0 0 0 0 0 0 0 0 0 0 0 0 0 0 0 0 0 0 0 0 0 4 0 3 0 0 0 0 0 0 0 0 0 0 0 0 0 0 0 0 0 0 0 0 0 0 0 0 0 0 0 0 4 0 3 0 0 0 0 0 0 0 0 0 0 0 0 0 0 0 0 0 0 0 0 0 0 0 0 0 0 0 0 4 0 3 0 0 0 0 0 0 0 0 0 0 0 0 0 0 0 0 0 0 0 0 0 0 0 0 0 0 0 0 4 0 3 0 0 0 0 0 0 0 0 0 0 0 0 0 0 0 0 0 0 0 0 0 0 0 0 0 0 0 0 4 0 3 0 0 0 0 0 0 0 0 0 0 0 0 0 0 0 0 0 0 0 0 0 0 0 0 0 0 0 0 4 0 3 0 0 0 0 0 0 0 0 0 0 0 0 0 0 0 0 0 0 0 0 0 0 0 0 0 0 0 0 4 1 1 1 1 1 1 1 1 1 1 </DataArray>
</CellData>
</Piece>
</UnstructuredGrid>
</VTKFile>